/*--------------------------------*- C++ -*----------------------------------*\
| =========                 |                                                 |
| \\      /  F ield         | OpenFOAM: The Open Source CFD Toolbox           |
|  \\    /   O peration     | Version:  v1806                                 |
|   \\  /    A nd           | Web:      www.OpenFOAM.com                      |
|    \\/     M anipulation  |                                                 |
\*---------------------------------------------------------------------------*/
FoamFile
{
    version     2.0;
    format      ascii;
    class       volScalarField;
    location    "constant";
    object      yd;
}
// * * * * * * * * * * * * * * * * * * * * * * * * * * * * * * * * * * * * * //

dimensions      [0 0 0 0 0 0 0];


internalField   #codeStream
    {
	codeInclude
	#{
	    #include "fvCFD.H"
	#};

	codeOptions
	#{
	    -I$(LIB_SRC)/finiteVolume/lnInclude \
	    -I$(LIB_SRC)/meshTools/lnInclude
	#};

	codeLibs
	#{
	    -lmeshTools \
	    -lfiniteVolume
	 #};

	code
	#{
	    const IOdictionary& d = static_cast<const IOdictionary&>(dict);
	    const fvMesh& mesh = refCast<const fvMesh>(d.db());

	    scalarField yd(mesh.nCells(), 0.);
		scalar pi = constant::mathematical::pi;

	    forAll(yd, i)
	    {
		const scalar x = mesh.C()[i][0];
		const scalar y = mesh.C()[i][1];

		yd[i] = sin(pi*x)*sin(pi*y);
	    }

	    yd.writeEntry("", os);
	#};

    };



nonuniform List<scalar> 
361
(
0.00681935
0.020272
0.0331717
0.0451666
0.0559295
0.0651667
0.0726264
0.078105
0.0814531
0.0825793
0.0814531
0.078105
0.0726264
0.0651667
0.0559295
0.0451666
0.0331717
0.020272
0.00681935
0.020272
0.0602631
0.0986104
0.134268
0.166263
0.193723
0.215898
0.232184
0.242137
0.245485
0.242137
0.232184
0.215898
0.193723
0.166263
0.134268
0.0986104
0.0602631
0.020272
0.0331717
0.0986104
0.161359
0.219707
0.272061
0.316994
0.353281
0.37993
0.396217
0.401695
0.396217
0.37993
0.353281
0.316994
0.272061
0.219707
0.161359
0.0986104
0.0331717
0.0451666
0.134268
0.219707
0.299152
0.370438
0.431619
0.481027
0.517313
0.539488
0.546948
0.539488
0.517313
0.481027
0.431619
0.370438
0.299152
0.219707
0.134268
0.0451666
0.0559295
0.166263
0.272061
0.370438
0.45871
0.53447
0.595651
0.640585
0.668044
0.677282
0.668044
0.640585
0.595651
0.53447
0.45871
0.370438
0.272061
0.166263
0.0559295
0.0651667
0.193723
0.316994
0.431619
0.53447
0.622743
0.694028
0.746383
0.778378
0.789141
0.778378
0.746383
0.694028
0.622743
0.53447
0.431619
0.316994
0.193723
0.0651667
0.0726264
0.215898
0.353281
0.481027
0.595651
0.694028
0.773474
0.831821
0.867479
0.879474
0.867479
0.831821
0.773474
0.694028
0.595651
0.481027
0.353281
0.215898
0.0726264
0.078105
0.232184
0.37993
0.517313
0.640585
0.746383
0.831821
0.89457
0.932918
0.945817
0.932918
0.89457
0.831821
0.746383
0.640585
0.517313
0.37993
0.232184
0.078105
0.0814531
0.242137
0.396217
0.539488
0.668044
0.778378
0.867479
0.932918
0.972909
0.986361
0.972909
0.932918
0.867479
0.778378
0.668044
0.539488
0.396217
0.242137
0.0814531
0.0825793
0.245485
0.401695
0.546948
0.677282
0.789141
0.879474
0.945817
0.986361
1
0.986361
0.945817
0.879474
0.789141
0.677282
0.546948
0.401695
0.245485
0.0825793
0.0814531
0.242137
0.396217
0.539488
0.668044
0.778378
0.867479
0.932918
0.972909
0.986361
0.972909
0.932918
0.867479
0.778378
0.668044
0.539488
0.396217
0.242137
0.0814531
0.078105
0.232184
0.37993
0.517313
0.640585
0.746383
0.831821
0.89457
0.932918
0.945817
0.932918
0.89457
0.831821
0.746383
0.640585
0.517313
0.37993
0.232184
0.078105
0.0726264
0.215898
0.353281
0.481027
0.595651
0.694028
0.773474
0.831821
0.867479
0.879474
0.867479
0.831821
0.773474
0.694028
0.595651
0.481027
0.353281
0.215898
0.0726264
0.0651667
0.193723
0.316994
0.431619
0.53447
0.622743
0.694028
0.746383
0.778378
0.789141
0.778378
0.746383
0.694028
0.622743
0.53447
0.431619
0.316994
0.193723
0.0651667
0.0559295
0.166263
0.272061
0.370438
0.45871
0.53447
0.595651
0.640585
0.668044
0.677282
0.668044
0.640585
0.595651
0.53447
0.45871
0.370438
0.272061
0.166263
0.0559295
0.0451666
0.134268
0.219707
0.299152
0.370438
0.431619
0.481027
0.517313
0.539488
0.546948
0.539488
0.517313
0.481027
0.431619
0.370438
0.299152
0.219707
0.134268
0.0451666
0.0331717
0.0986104
0.161359
0.219707
0.272061
0.316994
0.353281
0.37993
0.396217
0.401695
0.396217
0.37993
0.353281
0.316994
0.272061
0.219707
0.161359
0.0986104
0.0331717
0.020272
0.0602631
0.0986104
0.134268
0.166263
0.193723
0.215898
0.232184
0.242137
0.245485
0.242137
0.232184
0.215898
0.193723
0.166263
0.134268
0.0986104
0.0602631
0.020272
0.00681935
0.020272
0.0331717
0.0451666
0.0559295
0.0651667
0.0726264
0.078105
0.0814531
0.0825793
0.0814531
0.078105
0.0726264
0.0651667
0.0559295
0.0451666
0.0331717
0.020272
0.00681935
)
;

boundaryField
{
    backAndFront
    {
        type            empty;
    }
    dirichletBoundary
    {
        type            fixedValue;
        value           uniform 0;
    }
}


// ************************************************************************* //
